# vtk DataFile Version 2.0			    
data										
ASCII									
DATASET POLYDATA						    
POINTS 12 double		
20.8904 4.78971 7.22923
20.4751 5.43932 7.50589
20.8309 5.55826 7.12029
20.5598 5.21447 7.89084
21.7256 5.51678 7.91025
21.3442 5.12503 7.38164
21.2025 5.57272 7.42655
21.481 5.78189 7.43838
22.0918 5.09194 7.98555
21.268 6.29616 7.09756
21.0267 5.25666 8.30737
21.0541 5.83164 8.05481
VERTICES  12 24
1 0
1 1
1 2
1 3
1 4
1 5
1 6
1 7
1 8
1 9
1 10
1 11
POINT_DATA 12
SCALARS ptype float 1
LOOKUP_TABLE  default
1
3
1
1
1
1
1
1
2
1
1
1
