# vtk DataFile Version 2.0			    
data										
ASCII									
DATASET POLYDATA						    
POINTS 12 double		
13.4865 4.88657 7.64351
14.9594 4.96137 7.62302
16.3097 5.26152 7.65881
17.4989 5.27751 7.85366
18.7261 5.2692 7.97086
21.3855 5.28679 7.99238
26.7515 5.52897 7.98459
20.0212 5.31822 8.00412
22.7448 5.09328 8.0378
24.1041 5.39747 8.07364
25.5381 5.49922 8.0418
28.0585 5.65099 8.19597
VERTICES  12 24
1 0
1 1
1 2
1 3
1 4
1 5
1 6
1 7
1 8
1 9
1 10
1 11
POINT_DATA 12
SCALARS ptype float 1
LOOKUP_TABLE  default
3
1
1
1
1
1
1
1
1
1
1
2
