# vtk DataFile Version 2.0			    
data										
ASCII									
DATASET POLYDATA						    
POINTS 12 double		
12.4625 4.45969 8.28405
13.6718 4.24655 8.27634
15.0843 4.25645 8.21444
16.459 4.32072 8.10441
17.6749 4.36915 8.06254
19.1225 4.40347 8.17059
20.3067 4.4739 8.28398
21.6015 4.43644 8.31642
22.781 4.49846 8.37629
23.9469 4.45997 8.42455
25.194 4.32487 8.32508
26.4688 4.26617 8.3919
VERTICES  12 24
1 0
1 1
1 2
1 3
1 4
1 5
1 6
1 7
1 8
1 9
1 10
1 11
POINT_DATA 12
SCALARS ptype float 1
LOOKUP_TABLE  default
3
1
1
1
1
1
1
1
1
1
1
2
