# vtk DataFile Version 2.0			    
data										
ASCII									
DATASET POLYDATA						    
POINTS 12 double		
18.4318 4.47933 8.90297
19.5912 4.5157 8.96865
20.9112 4.67041 8.68869
22.1075 4.6335 8.71248
23.3671 4.68161 8.77932
24.503 4.83873 8.88292
10.6862 4.66486 9.05592
12.0521 4.72719 9.13419
13.4769 4.58857 9.19985
14.7182 4.54582 9.06499
15.8731 4.59709 9.06204
17.1928 4.65027 9.06678
VERTICES  12 24
1 0
1 1
1 2
1 3
1 4
1 5
1 6
1 7
1 8
1 9
1 10
1 11
POINT_DATA 12
SCALARS ptype float 1
LOOKUP_TABLE  default
1
1
1
1
1
2
3
1
1
1
1
1
