# vtk DataFile Version 2.0			    
data										
ASCII									
DATASET POLYDATA						    
POINTS 12 double		
12.6883 5.34118 7.92439
13.8918 5.4246 7.92558
15.3371 5.34441 7.90043
16.5851 5.35464 7.8299
17.9448 5.58319 7.80825
19.2856 5.52632 7.84057
20.6656 5.48325 7.98615
21.9209 5.49181 7.78401
23.2204 5.47468 7.55933
24.6012 5.42458 7.47104
25.7468 5.38256 7.355
27.0247 5.44605 7.4803
VERTICES  12 24
1 0
1 1
1 2
1 3
1 4
1 5
1 6
1 7
1 8
1 9
1 10
1 11
POINT_DATA 12
SCALARS ptype float 1
LOOKUP_TABLE  default
3
1
1
1
1
1
1
1
1
1
1
2
