# vtk DataFile Version 2.0			    
data										
ASCII									
DATASET POLYDATA						    
POINTS 12 double		
20.9769 5.87335 8.77479
21.7411 5.48638 8.51186
22.0586 5.47122 8.99134
21.7688 6.07749 8.79872
21.4576 6.31816 8.42988
21.0211 6.38481 8.56282
21.2114 3.5371 9.27667
21.345 3.47436 9.77336
21.1072 4.15889 9.22982
21.3581 4.93214 9.22349
21.5302 4.47692 9.44375
21.751 5.15028 9.37322
VERTICES  12 24
1 0
1 1
1 2
1 3
1 4
1 5
1 6
1 7
1 8
1 9
1 10
1 11
POINT_DATA 12
SCALARS ptype float 1
LOOKUP_TABLE  default
2
1
1
1
1
1
1
3
1
1
1
1
