# vtk DataFile Version 2.0			    
data										
ASCII									
DATASET POLYDATA						    
POINTS 12 double		
11.8608 4.57875 8.17504
13.2297 4.40246 8.206
14.484 4.37978 8.21638
15.6419 4.37639 8.29219
17.0767 4.31649 8.23273
18.4891 4.46514 8.49538
19.7449 4.59925 8.38413
20.7703 4.43037 8.43817
21.9499 4.2893 8.78361
23.3307 4.2717 8.84412
24.5342 4.26299 8.99358
25.8126 4.3187 8.9918
VERTICES  12 24
1 0
1 1
1 2
1 3
1 4
1 5
1 6
1 7
1 8
1 9
1 10
1 11
POINT_DATA 12
SCALARS ptype float 1
LOOKUP_TABLE  default
3
1
1
1
1
1
1
1
1
1
1
2
