# vtk DataFile Version 2.0			    
data										
ASCII									
DATASET POLYDATA						    
POINTS 12 double		
10.4307 4.77848 8.3883
11.5815 4.62388 8.57726
12.8449 4.75566 8.58943
14.2339 4.90333 8.53879
15.4425 4.94784 8.44586
16.6329 4.85197 8.43373
17.8726 4.85765 8.60316
19.1521 4.74025 8.81378
20.4453 4.86738 8.90669
21.6804 4.93287 8.88766
23.1146 4.89774 8.75092
24.4312 4.86579 8.66772
VERTICES  12 24
1 0
1 1
1 2
1 3
1 4
1 5
1 6
1 7
1 8
1 9
1 10
1 11
POINT_DATA 12
SCALARS ptype float 1
LOOKUP_TABLE  default
3
1
1
1
1
1
1
1
1
1
1
2
