# vtk DataFile Version 2.0			    
data										
ASCII									
DATASET POLYDATA						    
POINTS 12 double		
17.7112 5.45588 7.93816
19.0266 5.41448 7.86333
20.1989 5.32257 7.80069
21.5104 5.49817 7.83063
22.8171 5.68054 7.88227
24.0159 5.75567 7.94814
25.3995 5.8789 7.77569
26.7129 5.98002 7.87649
12.4583 5.37152 8.1942
13.7507 5.40265 8.22534
15.1617 5.27516 8.08645
16.4762 5.52468 8.03655
VERTICES  12 24
1 0
1 1
1 2
1 3
1 4
1 5
1 6
1 7
1 8
1 9
1 10
1 11
POINT_DATA 12
SCALARS ptype float 1
LOOKUP_TABLE  default
1
1
1
1
1
1
1
2
3
1
1
1
