# vtk DataFile Version 2.0			    
data										
ASCII									
DATASET POLYDATA						    
POINTS 12 double		
12.2299 5.53954 7.60217
13.5454 5.53864 7.61205
14.9538 5.47305 7.52207
16.2293 5.48078 7.42991
17.4869 5.40077 7.66403
18.6799 5.4816 7.70729
20.0019 5.50427 7.63478
21.3685 5.65795 7.8823
22.3853 5.59766 8.00008
23.6142 5.50092 8.08718
24.9394 5.61401 8.07263
26.3336 5.5356 8.27741
VERTICES  12 24
1 0
1 1
1 2
1 3
1 4
1 5
1 6
1 7
1 8
1 9
1 10
1 11
POINT_DATA 12
SCALARS ptype float 1
LOOKUP_TABLE  default
3
1
1
1
1
1
1
1
1
1
1
2
