# vtk DataFile Version 2.0			    
data										
ASCII									
DATASET POLYDATA						    
POINTS 12 double		
12.2974 4.59138 8.40402
13.6015 4.56685 8.5115
14.8904 4.42742 8.64974
15.9679 4.25642 8.63065
17.2567 4.3181 8.51565
18.619 4.40506 8.60138
19.9069 4.33991 8.52607
21.2312 4.24626 8.69979
22.4784 4.20076 8.66699
23.572 4.32282 8.50636
24.8378 4.50833 8.57827
26.0841 4.48844 8.34237
VERTICES  12 24
1 0
1 1
1 2
1 3
1 4
1 5
1 6
1 7
1 8
1 9
1 10
1 11
POINT_DATA 12
SCALARS ptype float 1
LOOKUP_TABLE  default
3
1
1
1
1
1
1
1
1
1
1
2
