# vtk DataFile Version 2.0			    
data										
ASCII									
DATASET POLYDATA						    
POINTS 12 double		
15.2882 5.15454 7.96353
16.4582 5.42843 7.89549
17.8882 5.26972 7.86812
19.0417 5.3712 7.85076
20.291 5.45028 7.64591
21.5958 5.40014 7.55925
22.9817 5.64038 7.59324
24.1177 5.68986 7.50677
25.4048 5.64827 7.5129
26.6067 5.50215 7.4143
27.8977 5.41287 7.60129
13.9647 5.18199 8.07101
VERTICES  12 24
1 0
1 1
1 2
1 3
1 4
1 5
1 6
1 7
1 8
1 9
1 10
1 11
POINT_DATA 12
SCALARS ptype float 1
LOOKUP_TABLE  default
1
1
1
1
1
1
1
1
1
1
2
3
