# vtk DataFile Version 2.0			    
data										
ASCII									
DATASET POLYDATA						    
POINTS 12 double		
12.6537 5.42112 7.46857
13.9797 5.4822 7.50419
15.2529 5.52502 7.60872
16.4465 5.50291 7.76672
17.7746 5.49043 7.64989
18.9397 5.45218 7.67362
20.1306 5.57416 7.74481
21.5028 5.49506 7.83806
22.7929 5.52464 7.68375
24.0421 5.36666 7.73805
25.2623 5.30141 7.63152
26.6096 5.50444 7.69384
VERTICES  12 24
1 0
1 1
1 2
1 3
1 4
1 5
1 6
1 7
1 8
1 9
1 10
1 11
POINT_DATA 12
SCALARS ptype float 1
LOOKUP_TABLE  default
3
1
1
1
1
1
1
1
1
1
1
2
