# vtk DataFile Version 2.0			    
data										
ASCII									
DATASET POLYDATA						    
POINTS 12 double		
20.2533 4.94461 7.91426
14.2725 5.17678 7.99391
15.3932 5.0137 7.94456
17.91 5.10401 7.89009
21.6354 5.0271 7.98001
22.8042 5.13482 7.92947
16.7237 4.99804 8.0346
19.1014 4.82121 8.04381
13.0788 5.39996 8.09735
24.1563 5.12947 8.11353
25.4717 5.03713 8.07401
26.8762 5.02471 8.05145
VERTICES  12 24
1 0
1 1
1 2
1 3
1 4
1 5
1 6
1 7
1 8
1 9
1 10
1 11
POINT_DATA 12
SCALARS ptype float 1
LOOKUP_TABLE  default
1
1
1
1
1
1
1
1
3
1
1
2
