# vtk DataFile Version 2.0			    
data										
ASCII									
DATASET POLYDATA						    
POINTS 12 double		
12.299 4.95281 7.25047
8.86897 5.03372 7.20759
10.0724 5.0345 7.21141
11.3381 5.48708 7.27111
14.2439 5.23748 7.71155
15.7267 5.094 7.49729
17.2124 5.05833 7.59743
18.7074 5.09206 7.99052
19.7913 5.17273 7.93984
20.7343 4.84785 8.1468
22.1049 4.98457 8.13
23.1518 4.76136 8.03208
VERTICES  12 24
1 0
1 1
1 2
1 3
1 4
1 5
1 6
1 7
1 8
1 9
1 10
1 11
POINT_DATA 12
SCALARS ptype float 1
LOOKUP_TABLE  default
1
3
1
1
1
1
1
1
1
1
1
2
