# vtk DataFile Version 2.0			    
data										
ASCII									
DATASET POLYDATA						    
POINTS 12 double		
14.2956 4.89243 7.90751
13.6567 5.01945 7.67262
14.199 5.02993 7.30254
14.7094 5.15629 7.63305
13.8918 4.821 8.99414
14.9301 4.60934 8.92313
14.657 4.37167 8.18554
15.058 4.63885 8.49222
13.8566 5.16967 9.29858
14.8612 5.11405 9.35475
14.0845 5.78885 9.1726
14.6525 5.59098 9.11919
VERTICES  12 24
1 0
1 1
1 2
1 3
1 4
1 5
1 6
1 7
1 8
1 9
1 10
1 11
POINT_DATA 12
SCALARS ptype float 1
LOOKUP_TABLE  default
1
3
1
1
2
1
1
1
1
1
1
1
