# vtk DataFile Version 2.0			    
data										
ASCII									
DATASET POLYDATA						    
POINTS 12 double		
15.3665 4.76133 7.33982
15.6269 4.36199 7.49965
16.2265 4.6595 7.32841
16.589 4.66369 7.73157
15.4949 5.42881 7.36111
15.2775 5.03717 7.12889
16.0616 5.53628 7.48916
16.3932 5.16993 7.76503
16.4998 5.66126 7.53543
15.7979 4.70858 8.04878
15.0712 4.90094 8.11984
15.557 5.09736 8.31698
VERTICES  12 24
1 0
1 1
1 2
1 3
1 4
1 5
1 6
1 7
1 8
1 9
1 10
1 11
POINT_DATA 12
SCALARS ptype float 1
LOOKUP_TABLE  default
1
1
3
1
1
1
1
1
1
1
2
1
