# vtk DataFile Version 2.0			    
data										
ASCII									
DATASET POLYDATA						    
POINTS 12 double		
21.5529 3.66559 0.781643
22.02 3.62643 0.416036
21.7839 5.53782 8.63042
20.8972 6.26387 8.90331
21.6474 6.03789 8.32019
21.4593 6.23919 8.72771
21.6949 4.8447 9.53605
21.7763 4.46459 9.83442
22.1767 4.00404 9.93121
20.8263 5.95104 9.38879
21.7543 5.1469 9.09057
21.4484 5.53527 9.0604
VERTICES  12 24
1 0
1 1
1 2
1 3
1 4
1 5
1 6
1 7
1 8
1 9
1 10
1 11
POINT_DATA 12
SCALARS ptype float 1
LOOKUP_TABLE  default
3
1
1
1
1
1
1
1
1
2
1
1
