# vtk DataFile Version 2.0			    
data										
ASCII									
DATASET POLYDATA						    
POINTS 12 double		
18.4974 4.34994 8.79724
19.7721 4.31561 8.76676
21.0285 4.25926 8.53764
22.3211 4.37477 8.54333
23.5681 4.45594 8.71262
24.8061 4.39265 8.84358
10.8913 4.50042 9.13427
11.9022 4.53274 9.17481
13.1094 4.41491 9.18887
14.4008 4.36101 9.21829
15.8261 4.34533 9.2171
17.0473 4.35211 9.02395
VERTICES  12 24
1 0
1 1
1 2
1 3
1 4
1 5
1 6
1 7
1 8
1 9
1 10
1 11
POINT_DATA 12
SCALARS ptype float 1
LOOKUP_TABLE  default
1
1
1
1
1
2
3
1
1
1
1
1
