# vtk DataFile Version 2.0			    
data										
ASCII									
DATASET POLYDATA						    
POINTS 12 double		
10.333 4.39811 7.55246
11.6163 4.59598 7.54898
12.9885 4.69071 7.44883
14.1604 4.66031 7.54779
15.3204 4.80943 7.66082
16.5105 4.77123 7.8132
17.5695 4.91585 7.93233
18.8536 4.73201 7.98451
20.1201 4.79912 8.05112
21.4402 4.89034 8.09766
22.6886 5.15257 8.15351
24.063 5.2546 8.15117
VERTICES  12 24
1 0
1 1
1 2
1 3
1 4
1 5
1 6
1 7
1 8
1 9
1 10
1 11
POINT_DATA 12
SCALARS ptype float 1
LOOKUP_TABLE  default
3
1
1
1
1
1
1
1
1
1
1
2
