# vtk DataFile Version 2.0			    
data										
ASCII									
DATASET POLYDATA						    
POINTS 12 double		
11.3134 4.96676 8.53577
12.6443 4.85958 8.55866
13.9314 4.64379 8.63718
15.2463 4.65522 8.72933
16.3494 4.6944 8.50813
17.645 4.51636 8.55589
18.9958 4.50504 8.50999
20.0413 4.58586 8.62827
21.3351 4.57465 8.49473
22.5598 4.76041 8.52098
23.8867 4.70543 8.52919
24.9047 4.74993 8.62054
VERTICES  12 24
1 0
1 1
1 2
1 3
1 4
1 5
1 6
1 7
1 8
1 9
1 10
1 11
POINT_DATA 12
SCALARS ptype float 1
LOOKUP_TABLE  default
3
1
1
1
1
1
1
1
1
1
1
2
