# vtk DataFile Version 2.0			    
data										
ASCII									
DATASET POLYDATA						    
POINTS 12 double		
21.9396 4.57852 7.99622
23.2318 4.47315 7.80116
24.404 4.41286 7.88424
10.2855 4.86796 8.72834
11.515 4.67954 8.54486
12.862 4.68676 8.42383
14.1925 4.70053 8.34381
15.3741 4.77836 8.53129
16.7957 4.82237 8.38709
19.322 4.80926 8.19246
20.5843 4.7551 8.07861
18.0518 5.01208 8.22608
VERTICES  12 24
1 0
1 1
1 2
1 3
1 4
1 5
1 6
1 7
1 8
1 9
1 10
1 11
POINT_DATA 12
SCALARS ptype float 1
LOOKUP_TABLE  default
1
1
2
3
1
1
1
1
1
1
1
1
