# vtk DataFile Version 2.0			    
data										
ASCII									
DATASET POLYDATA						    
POINTS 12 double		
15.7224 4.6786 7.30155
15.2743 4.46486 7.03531
15.2475 5.38762 7.69236
15.5398 5.27389 7.13048
14.1186 4.39794 8.84361
14.9804 5.81094 8.9802
15.554 5.58224 8.72935
15.2383 5.62245 8.14905
14.7337 4.79459 9.46731
14.1456 4.67893 9.69999
14.1487 4.19588 9.40999
14.745 5.38386 9.23926
VERTICES  12 24
1 0
1 1
1 2
1 3
1 4
1 5
1 6
1 7
1 8
1 9
1 10
1 11
POINT_DATA 12
SCALARS ptype float 1
LOOKUP_TABLE  default
1
3
1
1
2
1
1
1
1
1
1
1
