# vtk DataFile Version 2.0			    
data										
ASCII									
DATASET POLYDATA						    
POINTS 12 double		
14.0181 5.10837 7.77627
15.3773 5.17033 7.85077
16.737 5.08206 7.58745
18.0521 5.08504 7.56688
19.2173 5.24788 7.73586
20.4579 5.025 7.87616
21.8233 5.06441 8.02072
23.0203 5.04343 8.15969
24.306 5.14831 8.29465
25.3932 5.2653 8.41039
26.6869 5.43771 8.53144
27.8365 5.26926 8.46484
VERTICES  12 24
1 0
1 1
1 2
1 3
1 4
1 5
1 6
1 7
1 8
1 9
1 10
1 11
POINT_DATA 12
SCALARS ptype float 1
LOOKUP_TABLE  default
3
1
1
1
1
1
1
1
1
1
1
2
