# vtk DataFile Version 2.0			    
data										
ASCII									
DATASET POLYDATA						    
POINTS 12 double		
13.4208 5.5152 7.88337
14.6815 5.4901 7.81049
15.8578 5.5976 7.86021
17.1715 5.69061 7.86893
18.4977 5.79105 7.96373
19.8808 5.52376 7.89348
21.0221 5.66998 7.7371
22.4723 5.71597 7.8486
24.962 5.61231 7.87771
26.1751 5.47604 7.93011
23.7031 5.69602 8.04083
27.3575 5.56446 8.04808
VERTICES  12 24
1 0
1 1
1 2
1 3
1 4
1 5
1 6
1 7
1 8
1 9
1 10
1 11
POINT_DATA 12
SCALARS ptype float 1
LOOKUP_TABLE  default
3
1
1
1
1
1
1
1
1
1
1
2
