# vtk DataFile Version 2.0			    
data										
ASCII									
DATASET POLYDATA						    
POINTS 12 double		
21.5097 3.59523 7.92982
20.9145 5.98631 7.55123
21.7714 3.97769 8.11858
21.0197 3.60966 8.46058
21.4638 4.64056 8.27097
21.7267 5.0504 8.49508
21.1619 5.71249 8.25131
21.5794 5.43031 8.67512
20.6771 6.03368 8.41049
21.5334 6.02779 8.83782
21.3209 6.11395 8.0133
21.1629 6.25186 8.63314
VERTICES  12 24
1 0
1 1
1 2
1 3
1 4
1 5
1 6
1 7
1 8
1 9
1 10
1 11
POINT_DATA 12
SCALARS ptype float 1
LOOKUP_TABLE  default
1
2
1
3
1
1
1
1
1
1
1
1
