# vtk DataFile Version 2.0			    
data										
ASCII									
DATASET POLYDATA						    
POINTS 12 double		
11.9642 4.69128 8.7224
13.257 4.56948 8.75538
14.5968 4.58651 8.67176
15.922 4.4586 8.55361
17.2326 4.38873 8.53231
18.5986 4.40952 8.40992
20.0275 4.51793 8.3382
21.4037 4.42982 8.33775
22.829 4.40783 8.56608
24.2508 4.35485 8.6189
25.3623 4.49452 8.6609
26.5736 4.41161 8.64914
VERTICES  12 24
1 0
1 1
1 2
1 3
1 4
1 5
1 6
1 7
1 8
1 9
1 10
1 11
POINT_DATA 12
SCALARS ptype float 1
LOOKUP_TABLE  default
3
1
1
1
1
1
1
1
1
1
1
2
