# vtk DataFile Version 2.0			    
data										
ASCII									
DATASET POLYDATA						    
POINTS 12 double		
14.959 4.44598 8.95188
16.1344 4.58693 8.93025
17.3952 4.53145 8.9335
18.6656 4.6777 8.8665
19.8702 4.53057 8.63817
21.1367 4.38202 8.42511
22.2167 4.4537 8.40335
23.641 4.28639 8.46447
24.9251 4.22246 8.39665
11.1168 4.29905 9.28637
12.3289 4.33064 9.28729
13.7466 4.51278 9.08161
VERTICES  12 24
1 0
1 1
1 2
1 3
1 4
1 5
1 6
1 7
1 8
1 9
1 10
1 11
POINT_DATA 12
SCALARS ptype float 1
LOOKUP_TABLE  default
1
1
1
1
1
1
1
1
2
3
1
1
