# vtk DataFile Version 2.0			    
data										
ASCII									
DATASET POLYDATA						    
POINTS 12 double		
12.5022 4.30482 8.14476
13.7716 4.20216 8.14918
15.0648 4.07986 8.20573
16.3164 4.05102 8.34911
17.659 4.24474 8.1913
18.8623 4.32334 8.26717
20.1489 4.45192 8.33639
21.3189 4.63859 8.40562
22.5872 4.61562 8.34699
23.8336 4.50516 8.39057
25.1473 4.53629 8.13796
26.6053 4.4422 8.25114
VERTICES  12 24
1 0
1 1
1 2
1 3
1 4
1 5
1 6
1 7
1 8
1 9
1 10
1 11
POINT_DATA 12
SCALARS ptype float 1
LOOKUP_TABLE  default
3
1
1
1
1
1
1
1
1
1
1
2
