# vtk DataFile Version 2.0			    
data										
ASCII									
DATASET POLYDATA						    
POINTS 12 double		
21.2331 4.54832 7.93459
21.6336 4.52141 7.09154
21.625 4.19886 7.581
21.9887 5.07128 7.30632
21.7479 5.62761 7.55281
21.4406 5.03614 7.55154
21.3617 6.04652 7.88658
21.3738 4.39002 8.87858
21.5044 4.24496 8.36284
21.9677 5.64141 8.25246
21.5056 5.75536 8.28076
20.8718 6.1046 8.01041
VERTICES  12 24
1 0
1 1
1 2
1 3
1 4
1 5
1 6
1 7
1 8
1 9
1 10
1 11
POINT_DATA 12
SCALARS ptype float 1
LOOKUP_TABLE  default
1
1
1
1
1
1
1
3
1
1
1
2
