# vtk DataFile Version 2.0			    
data										
ASCII									
DATASET POLYDATA						    
POINTS 12 double		
12.2529 5.68039 7.78685
13.6611 5.76699 7.8609
14.9222 5.79786 7.79442
16.5269 5.75737 7.72438
17.7198 5.72902 7.66663
19.1496 5.79778 7.61598
20.3157 5.97688 7.4868
21.661 5.81686 7.45806
22.8131 5.62936 7.44407
24.0753 5.5013 7.64085
25.2402 5.59036 7.51589
26.4162 5.59025 7.56959
VERTICES  12 24
1 0
1 1
1 2
1 3
1 4
1 5
1 6
1 7
1 8
1 9
1 10
1 11
POINT_DATA 12
SCALARS ptype float 1
LOOKUP_TABLE  default
3
1
1
1
1
1
1
1
1
1
1
2
