# vtk DataFile Version 2.0			    
data										
ASCII									
DATASET POLYDATA						    
POINTS 12 double		
21.7281 4.82984 7.99508
22.9406 4.9473 7.76627
24.2251 4.87176 7.82705
25.5405 4.77636 7.69206
26.6497 4.81359 7.68487
12.8814 4.61903 8.07663
14.2822 4.51654 8.22337
15.6358 4.60143 8.12641
16.9631 4.66201 8.10204
18.118 4.86503 8.03368
19.2722 4.81694 8.15913
20.511 4.69457 8.0516
VERTICES  12 24
1 0
1 1
1 2
1 3
1 4
1 5
1 6
1 7
1 8
1 9
1 10
1 11
POINT_DATA 12
SCALARS ptype float 1
LOOKUP_TABLE  default
1
1
1
1
2
3
1
1
1
1
1
1
