# vtk DataFile Version 2.0			    
data										
ASCII									
DATASET POLYDATA						    
POINTS 12 double		
21.9104 4.13809 7.98168
21.3743 6.44442 7.80231
21.6729 3.75484 8.49638
21.9908 4.20402 8.4718
22.2479 4.65551 8.61837
21.9426 5.11556 8.66983
21.9777 5.8912 8.92029
21.5107 5.65241 8.53003
21.003 5.67242 8.24583
22.3234 5.58172 8.66993
21.0242 6.30638 8.17338
21.4871 6.10233 8.77182
VERTICES  12 24
1 0
1 1
1 2
1 3
1 4
1 5
1 6
1 7
1 8
1 9
1 10
1 11
POINT_DATA 12
SCALARS ptype float 1
LOOKUP_TABLE  default
1
2
3
1
1
1
1
1
1
1
1
1
