# vtk DataFile Version 2.0			    
data										
ASCII									
DATASET POLYDATA						    
POINTS 12 double		
17.9242 4.66695 7.9702
19.2014 4.75794 7.98322
20.4641 4.47411 7.91578
21.7603 4.47974 7.94363
23.0914 4.33574 7.96041
24.3052 4.17562 7.9054
25.5509 4.48412 7.92704
13.0689 4.52391 8.04037
14.2387 4.49736 8.17983
15.6478 4.65876 8.03354
16.696 4.68212 8.0236
26.7406 4.61571 8.08011
VERTICES  12 24
1 0
1 1
1 2
1 3
1 4
1 5
1 6
1 7
1 8
1 9
1 10
1 11
POINT_DATA 12
SCALARS ptype float 1
LOOKUP_TABLE  default
1
1
1
1
1
1
1
3
1
1
1
2
