# vtk DataFile Version 2.0			    
data										
ASCII									
DATASET POLYDATA						    
POINTS 12 double		
21.847 5.96484 6.80481
21.6134 5.58672 6.68677
21.5914 5.01241 7.50672
21.4632 5.57809 7.18192
21.3716 6.47775 7.03366
21.2664 6.13393 7.54268
21.3187 4.69077 8.02966
21.1308 4.68049 8.78114
21.5288 5.477 8.00847
21.7399 5.99116 8.01645
21.2706 5.15192 8.85365
21.772 5.35479 9.08733
VERTICES  12 24
1 0
1 1
1 2
1 3
1 4
1 5
1 6
1 7
1 8
1 9
1 10
1 11
POINT_DATA 12
SCALARS ptype float 1
LOOKUP_TABLE  default
1
1
1
1
1
1
1
1
2
1
1
3
