# vtk DataFile Version 2.0			    
data										
ASCII									
DATASET POLYDATA						    
POINTS 12 double		
11.1149 4.26915 8.50562
12.3344 4.39053 8.55666
13.6517 4.60523 8.69862
14.9295 4.56478 8.84332
16.1809 4.60772 8.87347
17.2878 4.80921 8.9813
18.6733 4.73118 8.81742
19.9437 4.78328 8.84181
21.1125 4.6853 8.82406
22.4257 4.69248 8.62291
23.5964 4.81415 8.53958
24.9145 5.02553 8.49217
VERTICES  12 24
1 0
1 1
1 2
1 3
1 4
1 5
1 6
1 7
1 8
1 9
1 10
1 11
POINT_DATA 12
SCALARS ptype float 1
LOOKUP_TABLE  default
3
1
1
1
1
1
1
1
1
1
1
2
