# vtk DataFile Version 2.0			    
data										
ASCII									
DATASET POLYDATA						    
POINTS 12 double		
12.3611 5.55083 7.37479
13.7488 5.39976 7.54941
15.0193 5.50639 7.66219
16.4153 5.48604 7.75359
17.6363 5.48544 7.86648
19.0176 5.56587 7.7633
20.1325 5.58255 7.95008
21.3551 5.56759 8.08629
22.6269 5.63874 8.15941
23.8406 5.76609 8.21948
25.1245 5.88706 8.32393
26.3744 5.85965 8.23077
VERTICES  12 24
1 0
1 1
1 2
1 3
1 4
1 5
1 6
1 7
1 8
1 9
1 10
1 11
POINT_DATA 12
SCALARS ptype float 1
LOOKUP_TABLE  default
3
1
1
1
1
1
1
1
1
1
1
2
