# vtk DataFile Version 2.0			    
data										
ASCII									
DATASET POLYDATA						    
POINTS 12 double		
10.5277 4.69754 7.83894
11.7404 4.72416 7.84244
12.8846 4.77411 7.73487
14.1447 4.69752 7.63368
15.5435 4.77261 7.58021
16.7724 4.77227 7.55515
18.0853 4.91372 7.54467
19.2596 4.88632 7.61115
20.5475 4.91326 7.57038
21.8048 4.93102 7.78589
23.1286 4.85976 7.8588
24.3352 4.78499 7.87938
VERTICES  12 24
1 0
1 1
1 2
1 3
1 4
1 5
1 6
1 7
1 8
1 9
1 10
1 11
POINT_DATA 12
SCALARS ptype float 1
LOOKUP_TABLE  default
3
1
1
1
1
1
1
1
1
1
1
2
