# vtk DataFile Version 2.0			    
data										
ASCII									
DATASET POLYDATA						    
POINTS 12 double		
16.7298 4.40018 6.43283
16.5226 4.82553 6.77831
15.0729 4.60665 7.51982
15.9047 5.74147 7.90913
15.1661 5.13961 7.52147
16.0941 5.16079 7.25793
16.2403 5.57007 7.7976
15.0853 4.70875 8.09967
14.6012 5.43564 8.90378
14.7784 5.09064 8.49439
15.6288 5.10296 8.01266
15.3137 5.18305 8.39904
VERTICES  12 24
1 0
1 1
1 2
1 3
1 4
1 5
1 6
1 7
1 8
1 9
1 10
1 11
POINT_DATA 12
SCALARS ptype float 1
LOOKUP_TABLE  default
3
1
1
1
1
1
1
1
2
1
1
1
