# vtk DataFile Version 2.0			    
data										
ASCII									
DATASET POLYDATA						    
POINTS 12 double		
22.2734 5.54616 6.63827
20.8494 5.45415 7.75064
21.7478 5.78076 7.77103
21.9019 5.16134 7.57444
21.3159 5.83149 7.78638
22.0998 5.9605 7.14905
22.1323 5.27278 7.22454
22.1077 6.27102 7.66778
21.8905 4.54183 8.78167
21.6004 4.62011 8.40761
21.6185 5.14179 8.04195
22.1487 4.80354 9.13638
VERTICES  12 24
1 0
1 1
1 2
1 3
1 4
1 5
1 6
1 7
1 8
1 9
1 10
1 11
POINT_DATA 12
SCALARS ptype float 1
LOOKUP_TABLE  default
1
2
1
1
1
1
1
1
1
1
1
3
