# vtk DataFile Version 2.0			    
data										
ASCII									
DATASET POLYDATA						    
POINTS 12 double		
14.2249 5.26483 7.87577
15.5608 5.26076 7.7424
16.6924 5.44371 7.85325
17.9215 5.43866 7.95007
19.0717 5.5004 7.82211
20.391 5.43125 7.9671
23.0408 5.25575 7.92481
24.3979 5.11385 7.80604
25.7677 5.2046 7.79896
26.9333 5.28544 7.83036
28.0651 5.2814 7.96637
21.7953 5.35614 8.02098
VERTICES  12 24
1 0
1 1
1 2
1 3
1 4
1 5
1 6
1 7
1 8
1 9
1 10
1 11
POINT_DATA 12
SCALARS ptype float 1
LOOKUP_TABLE  default
3
1
1
1
1
1
1
1
1
1
2
1
