# vtk DataFile Version 2.0			    
data										
ASCII									
DATASET POLYDATA						    
POINTS 12 double		
13.8536 4.59966 7.4715
14.3823 4.92082 7.89448
14.6904 4.49958 7.55698
13.8822 4.59331 8.08724
14.7731 4.14762 8.01287
14.6171 4.31277 8.64122
14.9215 4.72304 8.45208
14.8836 5.19662 8.96975
15.3415 5.03567 8.72194
13.8398 5.28641 9.34659
14.0461 5.67066 9.00232
14.5091 5.61339 9.20363
VERTICES  12 24
1 0
1 1
1 2
1 3
1 4
1 5
1 6
1 7
1 8
1 9
1 10
1 11
POINT_DATA 12
SCALARS ptype float 1
LOOKUP_TABLE  default
3
1
1
1
1
1
1
1
1
2
1
1
