# vtk DataFile Version 2.0			    
data										
ASCII									
DATASET POLYDATA						    
POINTS 12 double		
15.6374 5.42794 6.91831
16.2023 5.24267 6.86753
16.0974 4.93746 7.25577
16.1133 5.79192 7.17538
16.3368 5.67568 7.79185
15.4998 4.69347 8.51787
13.5096 5.95926 8.82594
14.507 5.47558 8.93027
14.9552 5.07685 8.56606
15.8137 5.17077 8.21389
16.3343 5.05274 8.02146
14.0186 5.68467 9.16976
VERTICES  12 24
1 0
1 1
1 2
1 3
1 4
1 5
1 6
1 7
1 8
1 9
1 10
1 11
POINT_DATA 12
SCALARS ptype float 1
LOOKUP_TABLE  default
1
1
3
1
1
1
2
1
1
1
1
1
