# vtk DataFile Version 2.0			    
data										
ASCII									
DATASET POLYDATA						    
POINTS 12 double		
9.4669 4.57594 7.48386
10.8427 4.53474 7.45642
11.8419 4.64773 7.62953
13.2574 4.61463 7.78581
14.5278 4.82562 7.83239
15.8743 4.83761 7.77364
17.2363 4.7581 7.96274
19.9796 4.81813 7.92846
18.6279 4.7948 8.01291
21.6032 4.68199 8.07146
22.8606 4.84411 8.23553
24.0679 4.94378 8.18075
VERTICES  12 24
1 0
1 1
1 2
1 3
1 4
1 5
1 6
1 7
1 8
1 9
1 10
1 11
POINT_DATA 12
SCALARS ptype float 1
LOOKUP_TABLE  default
3
1
1
1
1
1
1
1
1
1
1
2
