# vtk DataFile Version 2.0			    
data										
ASCII									
DATASET POLYDATA						    
POINTS 12 double		
13.9689 4.32172 7.54674
13.9164 4.83528 7.65719
14.9751 4.4948 7.89891
14.4886 4.51868 7.46478
14.9052 4.36633 8.54598
15.232 4.4861 8.72312
14.5769 5.12442 8.55515
15.1309 5.01186 8.30562
14.4456 4.81382 9.25946
14.7902 5.2095 9.02977
14.2633 5.37314 9.37573
14.2978 5.74141 9.2345
VERTICES  12 24
1 0
1 1
1 2
1 3
1 4
1 5
1 6
1 7
1 8
1 9
1 10
1 11
POINT_DATA 12
SCALARS ptype float 1
LOOKUP_TABLE  default
1
3
1
1
1
1
1
1
1
1
1
2
