# vtk DataFile Version 2.0			    
data										
ASCII									
DATASET POLYDATA						    
POINTS 12 double		
14.6386 4.4255 6.55832
14.4779 4.40606 7.08269
14.7979 4.63002 7.51705
15.2825 4.71629 7.82958
15.2676 4.1849 7.90518
15.2571 4.24517 7.54011
13.8361 4.88055 8.98229
13.7447 5.31348 8.57997
14.2406 5.60955 8.97715
14.9538 5.0567 8.18884
14.4962 5.31008 8.45341
13.5406 4.5768 9.52401
VERTICES  12 24
1 0
1 1
1 2
1 3
1 4
1 5
1 6
1 7
1 8
1 9
1 10
1 11
POINT_DATA 12
SCALARS ptype float 1
LOOKUP_TABLE  default
3
1
1
1
1
1
1
1
1
1
1
2
