# vtk DataFile Version 2.0			    
data										
ASCII									
DATASET POLYDATA						    
POINTS 12 double		
15.8223 4.74732 6.62349
15.6544 4.97033 7.86697
15.6284 4.85444 7.1825
15.9545 5.3121 7.49859
16.0604 5.36304 7.05052
13.931 4.9091 8.97136
14.9419 5.5166 8.78362
15.1288 5.15905 8.59939
15.2475 5.17796 8.10719
13.435 5.1126 9.10454
14.3716 5.02581 9.15883
14.553 5.6529 9.19756
VERTICES  12 24
1 0
1 1
1 2
1 3
1 4
1 5
1 6
1 7
1 8
1 9
1 10
1 11
POINT_DATA 12
SCALARS ptype float 1
LOOKUP_TABLE  default
3
1
1
1
1
1
1
1
1
2
1
1
