# vtk DataFile Version 2.0			    
data										
ASCII									
DATASET POLYDATA						    
POINTS 12 double		
12.1024 4.30277 8.85721
13.4447 4.28536 8.67538
14.8052 4.36623 8.72882
15.8933 4.3046 8.6578
17.2467 4.49903 8.5139
18.3874 4.68206 8.6063
19.6044 4.76465 8.74087
20.8375 4.72091 8.84089
22.2714 4.76968 8.70387
23.4827 4.79269 8.69764
24.6799 4.69558 8.69488
10.7504 4.36046 9.09118
VERTICES  12 24
1 0
1 1
1 2
1 3
1 4
1 5
1 6
1 7
1 8
1 9
1 10
1 11
POINT_DATA 12
SCALARS ptype float 1
LOOKUP_TABLE  default
1
1
1
1
1
1
1
1
1
1
2
3
