# vtk DataFile Version 2.0			    
data										
ASCII									
DATASET POLYDATA						    
POINTS 12 double		
21.5056 4.44518 7.95602
21.491 4.91866 7.68829
21.8325 4.61489 7.97063
21.1553 4.69429 7.98894
20.8542 6.41906 7.622
21.4528 6.59261 7.46424
21.4162 4.13804 8.25181
21.1634 4.35059 8.8386
21.9032 5.19398 8.23052
21.5475 5.33986 8.57101
21.3158 5.9586 8.63357
20.8211 6.15922 8.10941
VERTICES  12 24
1 0
1 1
1 2
1 3
1 4
1 5
1 6
1 7
1 8
1 9
1 10
1 11
POINT_DATA 12
SCALARS ptype float 1
LOOKUP_TABLE  default
1
1
1
1
1
2
1
3
1
1
1
1
