# vtk DataFile Version 2.0			    
data										
ASCII									
DATASET POLYDATA						    
POINTS 12 double		
16.2563 4.74331 7.98119
20.1037 4.39151 7.98804
12.3766 4.77614 8.25052
13.7571 4.71839 8.20407
14.9683 4.74847 8.09211
17.6508 4.68592 8.08115
18.9652 4.50989 8.10886
21.6473 4.47244 8.32317
22.9539 4.51111 8.36082
24.0956 4.47838 8.46937
25.5567 4.52339 8.50642
26.8238 4.41241 8.3339
VERTICES  12 24
1 0
1 1
1 2
1 3
1 4
1 5
1 6
1 7
1 8
1 9
1 10
1 11
POINT_DATA 12
SCALARS ptype float 1
LOOKUP_TABLE  default
1
1
3
1
1
1
1
1
1
1
1
2
